ITEM: TIMESTEP
0
ITEM: NUMBER OF ATOMS
1224
ITEM: BOX BOUNDS pp pp pp
0.0000000000000000e+00 1.4550000000000001e+01
-5.0000000000000003e-02 2.0047062284199999e+01
-2.6112294740999999e+00 6.2602416326899998e+01
ITEM: ATOMS id type f_avepos[1] f_avepos[2] f_avepos[3]
407 1 0 0 0
408 1 0 0 0
409 1 0 0 0
410 1 0 0 0
411 2 0 0 0
412 2 0 0 0
413 2 0 0 0
414 2 0 0 0
416 1 0 0 0
417 2 0 0 0
419 1 0 0 0
420 2 0 0 0
827 1 0 0 0
828 1 0 0 0
832 2 0 0 0
833 2 0 0 0
837 2 0 0 0
839 1 0 0 0
415 1 0 0 0
418 2 0 0 0
835 1 0 0 0
900 2 0 0 0
42 2 0 0 0
44 1 0 0 0
118 2 0 0 0
182 1 0 0 0
251 2 0 0 0
258 2 0 0 0
322 2 0 0 0
324 2 0 0 0
391 1 0 0 0
394 1 0 0 0
462 1 0 0 0
464 1 0 0 0
829 1 0 0 0
830 1 0 0 0
831 2 0 0 0
834 2 0 0 0
836 1 0 0 0
840 2 0 0 0
111 2 0 0 0
184 1 0 0 0
838 2 0 0 0
396 1 0 0 0
397 2 0 0 0
399 1 0 0 0
400 1 0 0 0
401 1 0 0 0
402 1 0 0 0
403 2 0 0 0
404 2 0 0 0
405 2 0 0 0
406 2 0 0 0
817 2 0 0 0
819 1 0 0 0
820 1 0 0 0
824 2 0 0 0
825 2 0 0 0
371 1 0 0 0
375 2 0 0 0
795 2 0 0 0
142 2 0 0 0
531 2 0 0 0
538 2 0 0 0
602 2 0 0 0
604 2 0 0 0
671 1 0 0 0
678 1 0 0 0
742 1 0 0 0
744 1 0 0 0
814 2 0 0 0
816 1 0 0 0
821 1 0 0 0
822 1 0 0 0
823 2 0 0 0
826 2 0 0 0
882 1 0 0 0
791 1 0 0 0
1211 1 0 0 0
1215 2 0 0 0
357 1 0 0 0
359 2 0 0 0
362 1 0 0 0
363 1 0 0 0
365 2 0 0 0
367 2 0 0 0
392 1 0 0 0
393 2 0 0 0
395 1 0 0 0
398 2 0 0 0
777 1 0 0 0
782 1 0 0 0
787 2 0 0 0
813 2 0 0 0
815 1 0 0 0
779 2 0 0 0
783 1 0 0 0
785 2 0 0 0
811 2 0 0 0
812 1 0 0 0
818 2 0 0 0
884 1 0 0 0
951 2 0 0 0
958 1 0 0 0
1197 1 0 0 0
1199 2 0 0 0
1202 1 0 0 0
1203 1 0 0 0
1205 2 0 0 0
1207 2 0 0 0
378 1 0 0 0
379 1 0 0 0
380 1 0 0 0
381 2 0 0 0
382 2 0 0 0
383 2 0 0 0
386 1 0 0 0
389 2 0 0 0
798 1 0 0 0
802 2 0 0 0
803 2 0 0 0
809 2 0 0 0
385 1 0 0 0
390 2 0 0 0
805 1 0 0 0
799 1 0 0 0
800 1 0 0 0
801 2 0 0 0
806 1 0 0 0
1024 2 0 0 0
1162 1 0 0 0
1218 1 0 0 0
1219 1 0 0 0
1220 1 0 0 0
1221 2 0 0 0
1222 2 0 0 0
1223 2 0 0 0
810 2 0 0 0
1022 2 0 0 0
1164 1 0 0 0
370 1 0 0 0
373 2 0 0 0
790 1 0 0 0
369 1 0 0 0
372 1 0 0 0
374 2 0 0 0
376 2 0 0 0
377 1 0 0 0
384 2 0 0 0
789 1 0 0 0
794 2 0 0 0
797 1 0 0 0
335 1 0 0 0
339 2 0 0 0
759 2 0 0 0
793 2 0 0 0
1210 1 0 0 0
1213 2 0 0 0
792 1 0 0 0
796 2 0 0 0
804 2 0 0 0
1209 1 0 0 0
1212 1 0 0 0
1214 2 0 0 0
1216 2 0 0 0
1217 1 0 0 0
1224 2 0 0 0
755 1 0 0 0
1175 1 0 0 0
1179 2 0 0 0
358 1 0 0 0
360 2 0 0 0
780 2 0 0 0
321 1 0 0 0
323 2 0 0 0
326 1 0 0 0
327 1 0 0 0
329 2 0 0 0
331 2 0 0 0
361 1 0 0 0
364 1 0 0 0
366 2 0 0 0
368 2 0 0 0
741 1 0 0 0
746 1 0 0 0
751 2 0 0 0
781 1 0 0 0
786 2 0 0 0
778 1 0 0 0
1198 1 0 0 0
1200 2 0 0 0
743 2 0 0 0
747 1 0 0 0
749 2 0 0 0
784 1 0 0 0
788 2 0 0 0
1161 1 0 0 0
1163 2 0 0 0
1166 1 0 0 0
1167 1 0 0 0
1169 2 0 0 0
1171 2 0 0 0
1201 1 0 0 0
1204 1 0 0 0
1206 2 0 0 0
1208 2 0 0 0
387 1 0 0 0
388 2 0 0 0
808 2 0 0 0
342 1 0 0 0
344 1 0 0 0
345 2 0 0 0
346 2 0 0 0
350 1 0 0 0
351 1 0 0 0
353 2 0 0 0
355 2 0 0 0
762 1 0 0 0
766 2 0 0 0
770 1 0 0 0
775 2 0 0 0
349 1 0 0 0
352 1 0 0 0
354 2 0 0 0
356 2 0 0 0
769 1 0 0 0
774 2 0 0 0
807 1 0 0 0
1091 2 0 0 0
1098 1 0 0 0
764 1 0 0 0
765 2 0 0 0
771 1 0 0 0
773 2 0 0 0
1182 1 0 0 0
1184 1 0 0 0
1185 2 0 0 0
1186 2 0 0 0
1190 1 0 0 0
1191 1 0 0 0
1193 2 0 0 0
1195 2 0 0 0
772 1 0 0 0
776 2 0 0 0
1189 1 0 0 0
1192 1 0 0 0
1194 2 0 0 0
1196 2 0 0 0
334 1 0 0 0
337 2 0 0 0
343 1 0 0 0
347 2 0 0 0
754 1 0 0 0
767 2 0 0 0
333 1 0 0 0
336 1 0 0 0
338 2 0 0 0
340 2 0 0 0
341 1 0 0 0
348 2 0 0 0
753 1 0 0 0
758 2 0 0 0
761 1 0 0 0
296 1 0 0 0
299 2 0 0 0
716 1 0 0 0
757 2 0 0 0
763 1 0 0 0
1174 1 0 0 0
1177 2 0 0 0
1183 1 0 0 0
1187 2 0 0 0
756 1 0 0 0
760 2 0 0 0
768 2 0 0 0
1173 1 0 0 0
1176 1 0 0 0
1178 2 0 0 0
1180 2 0 0 0
1181 1 0 0 0
1188 2 0 0 0
719 2 0 0 0
1136 1 0 0 0
1139 2 0 0 0
325 1 0 0 0
332 2 0 0 0
745 1 0 0 0
288 1 0 0 0
289 1 0 0 0
291 2 0 0 0
293 2 0 0 0
328 1 0 0 0
330 2 0 0 0
708 1 0 0 0
713 2 0 0 0
750 2 0 0 0
297 1 0 0 0
301 2 0 0 0
721 2 0 0 0
752 2 0 0 0
1165 1 0 0 0
1172 2 0 0 0
709 1 0 0 0
711 2 0 0 0
748 1 0 0 0
1128 1 0 0 0
1129 1 0 0 0
1131 2 0 0 0
1133 2 0 0 0
1168 1 0 0 0
1170 2 0 0 0
717 1 0 0 0
1137 1 0 0 0
1141 2 0 0 0
304 1 0 0 0
307 2 0 0 0
724 1 0 0 0
312 1 0 0 0
313 1 0 0 0
315 2 0 0 0
317 2 0 0 0
732 1 0 0 0
737 2 0 0 0
311 1 0 0 0
314 1 0 0 0
316 2 0 0 0
318 2 0 0 0
731 1 0 0 0
736 2 0 0 0
727 2 0 0 0
1144 1 0 0 0
1147 2 0 0 0
733 1 0 0 0
735 2 0 0 0
1152 1 0 0 0
1153 1 0 0 0
1155 2 0 0 0
1157 2 0 0 0
734 1 0 0 0
738 2 0 0 0
1151 1 0 0 0
1154 1 0 0 0
1156 2 0 0 0
1158 2 0 0 0
305 1 0 0 0
309 2 0 0 0
729 2 0 0 0
298 1 0 0 0
300 2 0 0 0
303 1 0 0 0
306 1 0 0 0
308 2 0 0 0
310 2 0 0 0
720 2 0 0 0
723 1 0 0 0
728 2 0 0 0
260 1 0 0 0
263 2 0 0 0
680 1 0 0 0
725 1 0 0 0
1145 1 0 0 0
1149 2 0 0 0
718 1 0 0 0
726 1 0 0 0
730 2 0 0 0
1138 1 0 0 0
1140 2 0 0 0
1143 1 0 0 0
1146 1 0 0 0
1148 2 0 0 0
1150 2 0 0 0
683 2 0 0 0
1100 1 0 0 0
1103 2 0 0 0
287 1 0 0 0
290 1 0 0 0
292 2 0 0 0
294 2 0 0 0
707 1 0 0 0
712 2 0 0 0
252 1 0 0 0
253 1 0 0 0
255 2 0 0 0
257 2 0 0 0
295 1 0 0 0
302 2 0 0 0
672 1 0 0 0
677 2 0 0 0
715 1 0 0 0
261 1 0 0 0
265 2 0 0 0
685 2 0 0 0
710 1 0 0 0
714 2 0 0 0
1127 1 0 0 0
1130 1 0 0 0
1132 2 0 0 0
1134 2 0 0 0
673 1 0 0 0
675 2 0 0 0
722 2 0 0 0
1092 1 0 0 0
1093 1 0 0 0
1095 2 0 0 0
1097 2 0 0 0
1135 1 0 0 0
1142 2 0 0 0
681 1 0 0 0
1101 1 0 0 0
1105 2 0 0 0
277 1 0 0 0
281 2 0 0 0
319 1 0 0 0
320 2 0 0 0
701 2 0 0 0
739 1 0 0 0
276 1 0 0 0
279 2 0 0 0
284 1 0 0 0
285 2 0 0 0
696 1 0 0 0
705 2 0 0 0
275 1 0 0 0
278 1 0 0 0
280 2 0 0 0
282 2 0 0 0
283 1 0 0 0
286 2 0 0 0
695 1 0 0 0
700 2 0 0 0
703 1 0 0 0
697 1 0 0 0
740 2 0 0 0
1117 1 0 0 0
1121 2 0 0 0
1159 1 0 0 0
1160 2 0 0 0
699 2 0 0 0
704 1 0 0 0
1116 1 0 0 0
1119 2 0 0 0
1124 1 0 0 0
1125 2 0 0 0
698 1 0 0 0
702 2 0 0 0
706 2 0 0 0
1115 1 0 0 0
1118 1 0 0 0
1120 2 0 0 0
1122 2 0 0 0
1123 1 0 0 0
1126 2 0 0 0
268 1 0 0 0
269 1 0 0 0
271 2 0 0 0
273 2 0 0 0
688 1 0 0 0
693 2 0 0 0
262 1 0 0 0
264 2 0 0 0
267 1 0 0 0
270 1 0 0 0
272 2 0 0 0
274 2 0 0 0
684 2 0 0 0
687 1 0 0 0
692 2 0 0 0
231 1 0 0 0
235 2 0 0 0
655 2 0 0 0
689 1 0 0 0
691 2 0 0 0
1108 1 0 0 0
1109 1 0 0 0
1111 2 0 0 0
1113 2 0 0 0
682 1 0 0 0
690 1 0 0 0
694 2 0 0 0
1102 1 0 0 0
1104 2 0 0 0
1107 1 0 0 0
1110 1 0 0 0
1112 2 0 0 0
1114 2 0 0 0
651 1 0 0 0
1071 1 0 0 0
1075 2 0 0 0
254 1 0 0 0
256 2 0 0 0
259 1 0 0 0
266 2 0 0 0
676 2 0 0 0
679 1 0 0 0
217 1 0 0 0
219 2 0 0 0
637 1 0 0 0
222 1 0 0 0
223 1 0 0 0
225 2 0 0 0
227 2 0 0 0
642 1 0 0 0
647 2 0 0 0
674 1 0 0 0
686 2 0 0 0
1094 1 0 0 0
1096 2 0 0 0
1099 1 0 0 0
1106 2 0 0 0
639 2 0 0 0
1057 1 0 0 0
1059 2 0 0 0
643 1 0 0 0
645 2 0 0 0
1062 1 0 0 0
1063 1 0 0 0
1065 2 0 0 0
1067 2 0 0 0
239 1 0 0 0
243 2 0 0 0
663 2 0 0 0
997 1 0 0 0
26 1 0 0 0
1051 1 0 0 0
522 2 0 0 0
955 2 0 0 0
887 1 0 0 0
150 1 0 0 0
246 1 0 0 0
603 2 0 0 0
506 2 0 0 0
196 1 0 0 0
1084 2 0 0 0
551 2 0 0 0
455 1 0 0 0
212 1 0 0 0
30 2 0 0 0
659 1 0 0 0
1079 1 0 0 0
1083 2 0 0 0
520 1 0 0 0
990 1 0 0 0
77 1 0 0 0
168 2 0 0 0
566 2 0 0 0
590 2 0 0 0
508 2 0 0 0
206 2 0 0 0
936 2 0 0 0
907 2 0 0 0
909 1 0 0 0
230 1 0 0 0
233 2 0 0 0
650 1 0 0 0
131 2 0 0 0
1064 1 0 0 0
1008 2 0 0 0
160 2 0 0 0
930 1 0 0 0
615 1 0 0 0
939 1 0 0 0
883 2 0 0 0
3 2 0 0 0
561 2 0 0 0
174 1 0 0 0
110 2 0 0 0
499 2 0 0 0
889 2 0 0 0
922 1 0 0 0
224 1 0 0 0
192 2 0 0 0
653 2 0 0 0
1070 1 0 0 0
1073 2 0 0 0
78 1 0 0 0
1089 2 0 0 0
869 2 0 0 0
1019 1 0 0 0
850 1 0 0 0
523 2 0 0 0
532 1 0 0 0
528 2 0 0 0
71 1 0 0 0
1027 1 0 0 0
218 1 0 0 0
220 2 0 0 0
221 1 0 0 0
228 2 0 0 0
640 2 0 0 0
641 1 0 0 0
149 1 0 0 0
503 1 0 0 0
147 1 0 0 0
250 2 0 0 0
991 2 0 0 0
574 2 0 0 0
90 1 0 0 0
1007 2 0 0 0
461 1 0 0 0
1052 1 0 0 0
240 1 0 0 0
93 2 0 0 0
177 2 0 0 0
968 1 0 0 0
541 1 0 0 0
581 2 0 0 0
638 1 0 0 0
648 2 0 0 0
1058 1 0 0 0
1060 2 0 0 0
1061 1 0 0 0
1068 2 0 0 0
1042 1 0 0 0
121 1 0 0 0
585 1 0 0 0
213 2 0 0 0
1014 1 0 0 0
443 2 0 0 0
48 1 0 0 0
460 2 0 0 0
117 2 0 0 0
424 2 0 0 0
1072 1 0 0 0
64 1 0 0 0
94 2 0 0 0
625 2 0 0 0
1026 1 0 0 0
457 2 0 0 0
846 1 0 0 0
193 1 0 0 0
194 1 0 0 0
1085 1 0 0 0
190 2 0 0 0
537 2 0 0 0
1039 2 0 0 0
923 1 0 0 0
644 1 0 0 0
475 1 0 0 0
91 1 0 0 0
1034 1 0 0 0
608 1 0 0 0
205 2 0 0 0
187 1 0 0 0
662 2 0 0 0
535 2 0 0 0
107 1 0 0 0
1043 1 0 0 0
130 1 0 0 0
568 1 0 0 0
188 1 0 0 0
583 1 0 0 0
956 2 0 0 0
986 2 0 0 0
552 2 0 0 0
592 1 0 0 0
483 1 0 0 0
67 2 0 0 0
1049 1 0 0 0
500 2 0 0 0
622 1 0 0 0
113 1 0 0 0
634 2 0 0 0
1004 1 0 0 0
558 1 0 0 0
126 2 0 0 0
481 1 0 0 0
1069 1 0 0 0
471 2 0 0 0
86 2 0 0 0
546 2 0 0 0
570 1 0 0 0
116 2 0 0 0
201 1 0 0 0
199 2 0 0 0
76 2 0 0 0
1056 2 0 0 0
1028 1 0 0 0
669 2 0 0 0
658 1 0 0 0
893 1 0 0 0
967 1 0 0 0
58 2 0 0 0
970 1 0 0 0
210 1 0 0 0
627 2 0 0 0
661 2 0 0 0
81 1 0 0 0
156 1 0 0 0
470 2 0 0 0
1017 2 0 0 0
631 1 0 0 0
138 1 0 0 0
601 1 0 0 0
1081 2 0 0 0
172 1 0 0 0
434 2 0 0 0
14 2 0 0 0
423 2 0 0 0
1003 1 0 0 0
249 2 0 0 0
1006 1 0 0 0
153 2 0 0 0
636 2 0 0 0
1047 2 0 0 0
507 2 0 0 0
421 1 0 0 0
843 2 0 0 0
513 2 0 0 0
87 2 0 0 0
169 2 0 0 0
665 1 0 0 0
664 2 0 0 0
1088 2 0 0 0
1021 1 0 0 0
226 2 0 0 0
621 1 0 0 0
1053 2 0 0 0
7 2 0 0 0
467 1 0 0 0
476 1 0 0 0
564 1 0 0 0
611 2 0 0 0
216 2 0 0 0
569 1 0 0 0
856 2 0 0 0
1013 1 0 0 0
530 2 0 0 0
144 1 0 0 0
22 2 0 0 0
167 2 0 0 0
987 1 0 0 0
875 1 0 0 0
163 1 0 0 0
139 2 0 0 0
514 2 0 0 0
612 2 0 0 0
540 1 0 0 0
35 1 0 0 0
207 2 0 0 0
666 1 0 0 0
161 2 0 0 0
941 2 0 0 0
191 2 0 0 0
171 1 0 0 0
842 1 0 0 0
1080 1 0 0 0
567 1 0 0 0
584 1 0 0 0
543 2 0 0 0
104 2 0 0 0
20 1 0 0 0
1045 2 0 0 0
105 1 0 0 0
588 2 0 0 0
241 2 0 0 0
942 2 0 0 0
609 2 0 0 0
498 1 0 0 0
885 1 0 0 0
903 1 0 0 0
39 2 0 0 0
136 1 0 0 0
15 2 0 0 0
1086 1 0 0 0
933 2 0 0 0
635 2 0 0 0
911 1 0 0 0
179 1 0 0 0
459 2 0 0 0
649 1 0 0 0
597 2 0 0 0
119 1 0 0 0
451 2 0 0 0
849 1 0 0 0
544 2 0 0 0
1044 1 0 0 0
134 2 0 0 0
995 1 0 0 0
985 2 0 0 0
1041 1 0 0 0
957 2 0 0 0
932 1 0 0 0
54 1 0 0 0
950 2 0 0 0
606 1 0 0 0
870 2 0 0 0
632 1 0 0 0
501 1 0 0 0
183 2 0 0 0
534 1 0 0 0
949 2 0 0 0
920 2 0 0 0
646 2 0 0 0
578 1 0 0 0
1046 2 0 0 0
29 2 0 0 0
158 1 0 0 0
247 1 0 0 0
607 1 0 0 0
186 1 0 0 0
545 2 0 0 0
109 2 0 0 0
529 2 0 0 0
630 1 0 0 0
998 1 0 0 0
215 2 0 0 0
973 2 0 0 0
1078 1 0 0 0
208 2 0 0 0
237 1 0 0 0
616 1 0 0 0
629 1 0 0 0
536 2 0 0 0
855 2 0 0 0
122 1 0 0 0
577 1 0 0 0
1001 2 0 0 0
993 2 0 0 0
979 2 0 0 0
450 2 0 0 0
502 1 0 0 0
148 1 0 0 0
593 1 0 0 0
437 1 0 0 0
472 2 0 0 0
159 2 0 0 0
654 2 0 0 0
133 2 0 0 0
880 2 0 0 0
894 1 0 0 0
927 2 0 0 0
872 2 0 0 0
180 2 0 0 0
185 1 0 0 0
902 1 0 0 0
211 1 0 0 0
56 1 0 0 0
200 2 0 0 0
1005 1 0 0 0
189 2 0 0 0
972 2 0 0 0
456 1 0 0 0
582 2 0 0 0
59 2 0 0 0
236 2 0 0 0
28 1 0 0 0
474 1 0 0 0
519 1 0 0 0
935 2 0 0 0
197 2 0 0 0
166 1 0 0 0
946 1 0 0 0
84 1 0 0 0
510 1 0 0 0
11 1 0 0 0
1082 2 0 0 0
80 2 0 0 0
13 2 0 0 0
617 2 0 0 0
1029 2 0 0 0
610 2 0 0 0
19 1 0 0 0
975 1 0 0 0
23 2 0 0 0
165 1 0 0 0
128 1 0 0 0
988 1 0 0 0
41 1 0 0 0
633 2 0 0 0
489 1 0 0 0
605 1 0 0 0
175 2 0 0 0
162 2 0 0 0
948 2 0 0 0
495 2 0 0 0
576 1 0 0 0
61 1 0 0 0
596 2 0 0 0
575 1 0 0 0
1066 2 0 0 0
8 2 0 0 0
572 2 0 0 0
978 1 0 0 0
667 1 0 0 0
181 1 0 0 0
204 1 0 0 0
952 1 0 0 0
618 2 0 0 0
533 1 0 0 0
613 1 0 0 0
112 1 0 0 0
974 2 0 0 0
526 1 0 0 0
88 2 0 0 0
862 2 0 0 0
496 2 0 0 0
916 2 0 0 0
452 2 0 0 0
904 1 0 0 0
938 1 0 0 0
517 1 0 0 0
99 1 0 0 0
9 1 0 0 0
1000 2 0 0 0
524 2 0 0 0
31 2 0 0 0
670 2 0 0 0
477 2 0 0 0
242 2 0 0 0
120 1 0 0 0
945 1 0 0 0
1025 1 0 0 0
619 2 0 0 0
74 2 0 0 0
425 1 0 0 0
454 1 0 0 0
234 2 0 0 0
238 1 0 0 0
895 1 0 0 0
580 2 0 0 0
1012 1 0 0 0
478 2 0 0 0
999 2 0 0 0
209 1 0 0 0
21 2 0 0 0
994 2 0 0 0
50 2 0 0 0
95 2 0 0 0
103 2 0 0 0
486 2 0 0 0
60 2 0 0 0
492 1 0 0 0
929 1 0 0 0
851 1 0 0 0
878 2 0 0 0
511 1 0 0 0
553 2 0 0 0
989 1 0 0 0
151 2 0 0 0
898 2 0 0 0
40 2 0 0 0
1011 1 0 0 0
877 2 0 0 0
505 2 0 0 0
203 1 0 0 0
888 1 0 0 0
1032 2 0 0 0
928 2 0 0 0
626 2 0 0 0
463 2 0 0 0
51 2 0 0 0
1076 2 0 0 0
954 1 0 0 0
859 1 0 0 0
102 2 0 0 0
525 1 0 0 0
1015 2 0 0 0
868 1 0 0 0
57 2 0 0 0
548 1 0 0 0
140 2 0 0 0
482 1 0 0 0
963 2 0 0 0
571 2 0 0 0
1055 2 0 0 0
557 1 0 0 0
917 1 0 0 0
2 1 0 0 0
1016 2 0 0 0
17 1 0 0 0
82 1 0 0 0
943 2 0 0 0
931 1 0 0 0
100 1 0 0 0
860 1 0 0 0
559 2 0 0 0
46 1 0 0 0
598 2 0 0 0
49 2 0 0 0
560 2 0 0 0
934 2 0 0 0
905 2 0 0 0
85 2 0 0 0
157 1 0 0 0
195 1 0 0 0
75 2 0 0 0
953 1 0 0 0
164 1 0 0 0
469 2 0 0 0
910 1 0 0 0
1074 2 0 0 0
542 1 0 0 0
69 1 0 0 0
969 1 0 0 0
32 2 0 0 0
229 1 0 0 0
146 2 0 0 0
897 2 0 0 0
5 1 0 0 0
10 1 0 0 0
579 2 0 0 0
847 2 0 0 0
509 1 0 0 0
984 1 0 0 0
124 2 0 0 0
896 1 0 0 0
422 1 0 0 0
594 1 0 0 0
657 1 0 0 0
844 2 0 0 0
232 1 0 0 0
1040 2 0 0 0
441 2 0 0 0
556 1 0 0 0
446 1 0 0 0
555 1 0 0 0
135 1 0 0 0
98 1 0 0 0
1090 2 0 0 0
562 2 0 0 0
959 1 0 0 0
623 1 0 0 0
37 2 0 0 0
890 2 0 0 0
614 1 0 0 0
176 2 0 0 0
108 2 0 0 0
1033 1 0 0 0
960 1 0 0 0
1050 1 0 0 0
965 2 0 0 0
866 1 0 0 0
96 2 0 0 0
429 1 0 0 0
114 1 0 0 0
488 2 0 0 0
912 1 0 0 0
34 1 0 0 0
908 2 0 0 0
586 1 0 0 0
170 2 0 0 0
901 1 0 0 0
620 2 0 0 0
964 2 0 0 0
465 1 0 0 0
1037 2 0 0 0
886 1 0 0 0
444 2 0 0 0
70 1 0 0 0
550 1 0 0 0
68 2 0 0 0
504 1 0 0 0
914 2 0 0 0
152 2 0 0 0
1030 2 0 0 0
961 1 0 0 0
549 1 0 0 0
563 1 0 0 0
38 2 0 0 0
448 1 0 0 0
1018 2 0 0 0
983 1 0 0 0
668 2 0 0 0
490 1 0 0 0
848 2 0 0 0
865 1 0 0 0
79 2 0 0 0
155 1 0 0 0
971 2 0 0 0
982 2 0 0 0
996 1 0 0 0
431 1 0 0 0
589 2 0 0 0
484 1 0 0 0
926 2 0 0 0
841 1 0 0 0
539 1 0 0 0
913 2 0 0 0
1048 2 0 0 0
115 2 0 0 0
1054 2 0 0 0
65 2 0 0 0
1036 1 0 0 0
132 2 0 0 0
97 1 0 0 0
16 2 0 0 0
1020 2 0 0 0
245 1 0 0 0
33 1 0 0 0
12 1 0 0 0
924 1 0 0 0
202 1 0 0 0
480 2 0 0 0
962 1 0 0 0
436 2 0 0 0
493 2 0 0 0
479 2 0 0 0
906 2 0 0 0
660 1 0 0 0
981 2 0 0 0
18 1 0 0 0
624 1 0 0 0
442 2 0 0 0
925 2 0 0 0
244 2 0 0 0
853 2 0 0 0
876 1 0 0 0
940 1 0 0 0
891 2 0 0 0
947 1 0 0 0
63 1 0 0 0
915 2 0 0 0
1023 2 0 0 0
485 2 0 0 0
1077 1 0 0 0
554 2 0 0 0
992 2 0 0 0
449 2 0 0 0
854 2 0 0 0
497 1 0 0 0
45 1 0 0 0
921 1 0 0 0
83 1 0 0 0
863 2 0 0 0
1038 2 0 0 0
143 1 0 0 0
867 1 0 0 0
438 1 0 0 0
440 1 0 0 0
445 1 0 0 0
433 2 0 0 0
106 1 0 0 0
248 2 0 0 0
879 2 0 0 0
857 1 0 0 0
852 1 0 0 0
89 1 0 0 0
447 1 0 0 0
587 2 0 0 0
428 2 0 0 0
861 2 0 0 0
432 1 0 0 0
628 2 0 0 0
918 1 0 0 0
521 2 0 0 0
439 1 0 0 0
141 2 0 0 0
53 1 0 0 0
980 2 0 0 0
1087 1 0 0 0
600 2 0 0 0
977 1 0 0 0
547 1 0 0 0
1010 2 0 0 0
565 2 0 0 0
881 1 0 0 0
198 2 0 0 0
944 2 0 0 0
214 2 0 0 0
66 2 0 0 0
966 2 0 0 0
145 2 0 0 0
937 1 0 0 0
27 1 0 0 0
892 2 0 0 0
515 2 0 0 0
919 2 0 0 0
127 1 0 0 0
858 1 0 0 0
518 1 0 0 0
491 1 0 0 0
1 1 0 0 0
595 2 0 0 0
466 1 0 0 0
874 1 0 0 0
899 2 0 0 0
656 2 0 0 0
652 1 0 0 0
36 1 0 0 0
55 1 0 0 0
72 1 0 0 0
573 2 0 0 0
1031 2 0 0 0
47 1 0 0 0
123 2 0 0 0
527 1 0 0 0
516 2 0 0 0
101 2 0 0 0
473 1 0 0 0
976 1 0 0 0
599 1 0 0 0
1002 2 0 0 0
92 1 0 0 0
468 1 0 0 0
1035 1 0 0 0
52 2 0 0 0
458 2 0 0 0
25 1 0 0 0
435 2 0 0 0
591 1 0 0 0
173 1 0 0 0
430 1 0 0 0
427 2 0 0 0
154 2 0 0 0
73 2 0 0 0
24 2 0 0 0
873 1 0 0 0
43 2 0 0 0
864 2 0 0 0
426 1 0 0 0
4 2 0 0 0
487 2 0 0 0
1009 2 0 0 0
137 1 0 0 0
178 2 0 0 0
62 1 0 0 0
125 2 0 0 0
871 2 0 0 0
845 1 0 0 0
512 1 0 0 0
129 1 0 0 0
6 1 0 0 0
453 1 0 0 0
494 2 0 0 0
