ITEM: TIMESTEP
1000
ITEM: NUMBER OF ATOMS
1224
ITEM: BOX BOUNDS pp pp pp
0.0000000000000000e+00 1.4550000000000001e+01
-5.0000000000000003e-02 2.0047062284199999e+01
-2.9207255533852958e+00 6.2911912406185294e+01
ITEM: ATOMS id type f_avepos[1] f_avepos[2] f_avepos[3] 
413 2 0.580279 4.82616 0.406084 
411 2 3.34435 2.34867 0.608301 
409 1 2.87377 4.60436 -0.0432746 
833 2 5.46998 4.37282 -0.248326 
89 1 3.13369 1.68817 63.4805 
828 1 5.563 2.2056 0.372602 
900 2 1.52157 1.70111 -0.891702 
879 2 5.50473 1.18682 63.8235 
852 1 4.92221 3.456 63.198 
857 1 0.114321 3.35184 64.4119 
428 2 7.31184 3.00427 62.4407 
410 1 3.34075 3.19053 2.80828 
412 2 0.748639 3.27411 3.17183 
832 2 5.65026 3.03167 2.67877 
415 1 0.567337 0.694428 3.6402 
418 2 3.17145 0.824837 3.46005 
835 1 5.60051 0.612691 3.45111 
378 1 0.540859 3.99683 5.20016 
798 1 5.5749 3.83989 5.02827 
381 2 3.11053 3.78645 5.12598 
408 1 0.979448 2.45266 1.18799 
380 1 2.93566 4.60869 7.29911 
382 2 0.385729 4.66096 7.42435 
386 1 2.9791 1.54538 5.67509 
385 1 0.365429 2.40815 8.04041 
390 2 2.83018 2.22953 7.95689 
805 1 5.30244 2.28853 8.05494 
802 2 5.30241 4.56921 7.37639 
809 2 5.30288 1.61342 5.69959 
389 2 0.474283 1.72839 5.82211 
355 2 0.338038 3.01074 10.283 
351 1 2.72964 2.84308 10.2185 
353 2 2.66677 0.517705 10.8327 
769 1 5.1586 3.49567 12.45 
770 1 5.2552 0.385609 10.7591 
775 2 5.25422 2.86369 10.2497 
349 1 0.232724 3.5217 12.5512 
352 1 2.56478 1.07312 13.0992 
356 2 2.67578 3.4204 12.503 
354 2 0.127682 1.1904 13.1648 
350 1 0.159993 0.571275 10.8122 
774 2 5.04735 1.11517 13.0312 
731 1 5.16996 4.83636 17.051 
313 1 2.76838 4.13097 14.7227 
315 2 2.7843 1.92874 15.3648 
317 2 0.355258 4.28538 14.7148 
732 1 5.29645 1.7983 15.3909 
737 2 5.14686 4.1061 14.7787 
257 2 0.321842 19.7572 16.1739 
312 1 0.338111 1.89331 15.4861 
318 2 2.82255 4.99481 17.0261 
279 2 2.86703 3.30681 19.9247 
320 2 2.97952 0.391251 18.3265 
705 2 5.23993 0.916318 20.5949 
276 1 0.43486 3.17656 19.8493 
284 1 2.81879 0.964124 20.6285 
285 2 0.343218 1.04419 20.9013 
696 1 5.2799 3.27025 19.9878 
739 1 5.5051 0.207165 18.3087 
319 1 0.367655 0.457557 18.5595 
314 1 3.02748 2.64172 17.6726 
316 2 0.540189 2.70919 17.6089 
736 2 5.42948 2.54203 17.6833 
278 1 2.9386 3.82064 22.2536 
997 1 5.2686 4.27306 24.8205 
703 1 5.2939 1.50855 22.902 
286 2 2.87572 1.47524 23.0693 
700 2 5.34607 3.93519 22.3487 
522 2 5.54795 1.71967 25.2316 
551 2 2.87328 4.37168 24.5018 
26 1 3.09071 1.8434 25.4901 
455 1 15.1329 4.5166 24.3868 
283 1 0.438805 1.4941 23.3188 
590 2 14.9856 2.25373 25.4326 
280 2 0.533329 3.75454 22.171 
461 1 5.68456 19.339 25.7663 
193 1 0.269397 1.43814 27.2753 
603 2 6.14001 -0.460851 28.159 
194 1 1.18987 3.83761 29.8206 
196 1 5.42867 2.34853 27.4383 
506 2 1.9602 2.7631 27.8306 
1051 1 2.71921 4.52973 26.9769 
508 2 13.5565 3.36041 27.2826 
1039 2 4.8623 4.64649 27.8554 
625 2 5.3552 2.08425 29.5618 
1072 1 3.18717 3.92473 33.7337 
172 1 4.11634 20.645 32.5984 
423 2 6.3821 22.6559 31.8283 
631 1 6.89576 20.9575 30.7126 
923 1 4.66726 4.24919 30.7907 
130 1 15.7464 1.9122 31.629 
188 1 7.05961 2.24872 34.1443 
434 2 3.21117 22.7738 31.3889 
104 2 14.024 2.72599 33.4071 
552 2 14.9722 0.245458 31.378 
513 2 12.8134 20.4984 34.0416 
1052 1 3.22067 21.5497 29.1478 
139 2 4.66517 1.72454 37.9271 
1013 1 4.82291 4.06921 37.0238 
216 2 4.3875 2.60276 34.9486 
171 1 6.61585 0.894653 38.2103 
846 1 2.33921 1.96487 35.947 
167 2 2.52994 3.98942 36.9862 
661 2 6.73898 4.58063 35.0907 
117 2 4.99303 -0.704748 34.2286 
611 2 16.7867 21.2483 33.8445 
148 1 2.26679 3.59344 40.1812 
1001 2 7.14858 22.5092 39.7874 
530 2 1.5234 1.28155 41.3344 
666 1 0.763854 1.49016 39.0173 
163 1 3.35486 1.00711 39.4898 
474 1 7.37743 -0.185295 41.795 
19 1 2.16295 5.36023 43.9445 
180 2 5.23543 2.58687 42.4152 
159 2 3.86394 4.20282 44.8331 
902 1 6.79525 2.63507 44.4042 
894 1 2.96536 2.37488 43.2456 
28 1 14.7893 3.0882 43.166 
166 1 5.85321 4.91852 43.3821 
519 1 6.98849 4.22532 48.0333 
185 1 4.04448 2.70076 46.5847 
1018 2 3.88946 1.82157 48.4435 
463 2 14.7465 3.06574 48.3145 
872 2 4.29253 4.56592 47.6248 
851 1 2.17034 3.36539 49.4122 
437 1 0.549572 3.70839 46.196 
151 2 5.0582 0.86644 51.7213 
989 1 5.18125 2.64269 51.2602 
898 2 1.78917 0.272343 53.8237 
1050 1 0.316744 2.99073 52.8247 
928 2 6.8057 3.879 52.2296 
866 1 3.15972 1.94493 53.8349 
586 1 4.00531 4.77958 53.9488 
40 2 2.56845 2.83719 51.7496 
170 2 2.54523 4.23301 55.3208 
176 2 16.288 20.4541 49.9718 
521 2 1.09194 2.17434 55.8402 
106 1 2.95791 2.57676 57.2554 
553 2 5.80357 3.89903 55.3526 
479 2 5.87097 21.078 57.9662 
143 1 14.4523 20.3366 55.3646 
624 1 0.32715 21.0488 58.1757 
488 2 3.94743 0.834082 55.5335 
114 1 6.04606 1.29436 55.7985 
248 2 1.14047 3.3264 58.4233 
152 2 4.33275 4.54086 57.8893 
1077 1 3.50264 19.9087 57.7633 
244 2 2.58831 21.3144 59.2653 
587 2 1.25208 3.78242 62.6775 
445 1 5.59224 22.2989 59.8705 
178 2 6.97735 20.3654 60.6242 
913 2 4.16747 3.33826 60.7857 
447 1 2.12634 2.73253 60.8695 
1030 2 7.3264 3.56858 59.4383 
154 2 1.32611 19.876 62.6347 
861 2 1.49382 5.40695 60.6213 
403 2 2.8155 6.9087 -0.461122 
937 1 2.39694 5.74981 63.3453 
401 1 3.19026 9.18941 -1.2852 
820 1 5.01219 6.39763 -1.13766 
405 2 0.834858 9.38013 -1.17077 
825 2 5.31684 9.10003 -1.59539 
400 1 0.469593 6.99344 -1.00917 
824 2 5.41881 7.63965 1.28596 
819 1 5.34937 10.1107 0.699701 
406 2 3.0489 10.1266 1.04861 
145 2 6.12032 5.52026 62.6968 
379 1 3.28719 6.16828 4.79574 
827 1 5.44205 5.42205 2.03715 
803 2 5.66505 6.11291 4.26305 
790 1 5.48863 8.50119 3.67021 
373 2 3.19339 8.50457 4.01567 
414 2 3.11813 5.4502 2.31955 
404 2 0.685897 7.65986 1.42394 
370 1 0.718468 8.45336 3.9579 
407 1 0.828445 5.6755 2.42018 
383 2 0.645272 6.26679 4.71549 
402 1 3.14506 7.69407 1.73026 
372 1 3.05319 9.12887 6.21455 
343 1 3.07767 7.65804 9.12532 
767 2 5.42704 7.61247 8.93465 
384 2 2.87542 6.93554 6.9445 
794 2 5.54861 9.14977 5.91993 
797 1 5.48898 6.84113 6.54933 
374 2 0.61167 9.20345 6.22989 
377 1 0.423877 6.94572 6.91617 
347 2 0.492463 7.73849 9.16705 
754 1 5.43447 9.9005 8.23775 
337 2 3.03281 9.95676 8.46421 
334 1 0.643 9.96001 8.52572 
348 2 2.86869 8.22281 11.4117 
344 1 2.86636 5.81151 11.9779 
761 1 5.27833 8.33493 11.4565 
342 1 0.496813 5.41534 9.62347 
762 1 5.29524 5.29037 9.67933 
766 2 5.26208 5.90197 11.9664 
341 1 0.421279 8.18548 11.5329 
346 2 0.355695 5.75663 11.872 
345 2 2.89379 5.27276 9.63755 
308 2 0.462809 7.286 16.2609 
307 2 2.77688 6.5189 14.1636 
724 1 5.19174 6.48566 14.256 
304 1 0.421301 6.71117 13.9673 
728 2 5.20225 7.22716 16.5655 
305 1 2.96039 8.97625 13.6373 
723 1 5.2695 9.61587 15.9578 
306 1 2.85264 7.28605 16.3703 
310 2 2.87801 9.6215 15.8785 
729 2 5.2806 8.99609 13.7026 
309 2 0.422829 9.0866 13.6955 
303 1 0.513812 9.75833 15.9171 
311 1 0.50953 4.97928 16.9181 
277 1 2.89685 5.65508 19.3393 
281 2 0.465647 5.60238 19.1134 
701 2 5.23092 5.63096 19.4506 
268 1 0.4481 8.03253 18.5234 
688 1 5.13014 7.94185 18.8484 
271 2 2.79333 7.99475 18.6866 
270 1 2.76466 8.65355 21.0432 
692 2 5.23765 8.59852 21.2688 
275 1 0.472738 6.12331 21.3178 
272 2 0.385322 8.44496 20.7433 
695 1 5.24069 6.2779 21.8183 
650 1 5.20846 9.24376 23.6033 
663 2 5.1922 6.70842 24.1435 
907 2 4.28545 8.68606 25.7781 
230 1 0.242857 9.17502 22.9534 
239 1 2.62366 7.06609 24.2091 
233 2 2.77041 9.21604 23.2806 
243 2 0.233505 6.93514 23.8509 
850 1 15.7083 8.47605 25.8206 
282 2 2.86931 6.2781 21.7485 
887 1 3.70544 8.67909 28.6618 
160 2 2.22791 9.62482 26.9892 
150 1 4.19009 6.53221 26.4364 
909 1 6.37 8.78622 26.642 
76 2 15.286 5.71455 26.6444 
212 1 6.18506 6.36819 28.4113 
126 2 5.93939 8.97499 28.8482 
634 2 0.900227 9.10273 29.3839 
174 1 1.55796 7.15764 28.468 
94 2 2.60806 5.31757 30.0464 
535 2 4.85562 5.14173 33.061 
86 2 5.88276 8.10174 33.2132 
1085 1 2.49374 7.04587 33.1713 
609 2 0.324759 8.84085 33.3478 
570 1 2.15703 9.69509 31.2287 
622 1 5.47335 8.59491 31.1403 
546 2 3.39021 7.87798 31.2535 
1026 1 0.932376 5.65497 31.5952 
190 2 6.02228 6.44172 30.6777 
610 2 5.81388 8.27135 37.2573 
644 1 3.8158 8.22992 36.118 
498 1 1.24666 8.52074 35.4035 
942 2 3.35039 9.18498 34.0551 
144 1 6.10071 6.50725 34.6136 
457 2 4.25622 6.08468 35.8254 
543 2 14.8501 6.15477 37.4295 
537 2 1.12626 5.24508 34.3511 
23 2 2.98514 8.55769 38.5023 
165 1 2.99946 8.85798 40.6888 
540 1 5.20878 7.84665 39.3461 
987 1 2.32461 5.73341 38.4671 
593 1 1.0345 6.23775 41.6412 
933 2 6.31536 6.6767 41.1606 
617 2 3.0414 6.48717 40.9944 
654 2 0.465403 8.32343 41.8748 
856 2 4.86492 5.40269 38.7168 
119 1 14.6654 8.05071 38.3213 
35 1 4.69946 4.79581 40.8116 
927 2 0.706956 5.92103 45.7531 
929 1 4.82862 6.31565 46.2142 
988 1 2.99116 9.55276 43.8327 
572 2 6.3289 10.0671 44.0902 
975 1 5.54039 8.43983 42.6898 
133 2 6.0958 6.84579 44.2866 
162 2 2.88688 7.20649 44.6654 
934 2 15.439 9.73486 44.4424 
1015 2 6.30367 7.5309 47.2464 
1016 2 5.80528 7.75633 50.6975 
489 1 4.96445 10.0268 47.8259 
557 1 3.23266 8.41898 46.5775 
482 1 1.15925 6.81123 47.7714 
860 1 4.43396 7.20164 49.0329 
505 2 1.63343 5.28606 49.6898 
490 1 3.23046 6.25008 51.9437 
79 2 1.37964 5.29746 52.9155 
964 2 4.14379 6.97069 54.3929 
865 1 4.47968 8.88003 53.3356 
100 1 1.9177 9.36224 53.6893 
542 1 6.89132 9.14659 52.1751 
912 1 0.105766 6.07613 54.5282 
888 1 5.83943 5.32515 50.9701 
560 2 15.2243 7.92057 52.232 
140 2 6.5544 9.92135 54.2561 
963 2 2.67633 7.81252 49.7032 
848 2 3.50345 7.61156 57.6473 
901 1 2.61427 6.15528 56.5764 
16 2 6.01756 8.98593 57.3513 
448 1 5.60016 7.17866 56.0871 
996 1 0.819836 8.00062 57.6726 
132 2 7.8195 6.00728 55.6462 
971 2 1.30003 8.36635 55.6412 
432 1 0.777562 5.588 58.6762 
504 1 6.61067 4.4906 57.2694 
214 2 5.02006 8.57766 59.9158 
127 1 2.75287 8.21444 60.0533 
595 2 3.20898 7.87506 62.3977 
47 1 5.87681 7.56727 61.8405 
27 1 0.641308 8.20563 61.6262 
491 1 3.68907 5.60921 61.0511 
841 1 5.2931 6.39523 58.9956 
926 2 7.43196 6.80668 59.7424 
396 1 2.99479 12.534 0.670585 
142 2 3.21483 11.7791 -1.3697 
815 1 5.35371 14.6323 -0.101388 
397 2 0.530622 12.2813 0.580305 
817 2 5.59749 12.3751 0.383753 
858 1 0.209041 12.9484 64.2293 
1 1 5.13977 12.7335 63.7806 
591 1 2.38672 13.9224 62.9813 
399 1 0.687368 9.89046 1.13514 
371 1 3.03468 10.8583 3.32605 
366 2 0.333398 13.7475 5.06069 
795 2 5.40933 10.8681 3.11081 
364 1 2.80133 13.8671 5.14133 
365 2 2.75136 13.2799 2.82759 
782 1 5.24836 13.2316 2.62519 
786 2 5.2307 13.792 4.93838 
362 1 0.359908 12.931 2.81725 
789 1 5.44482 11.4626 5.44542 
375 2 0.35425 10.7197 3.348 
335 1 2.91295 12.2876 7.70405 
339 2 0.569491 12.303 7.9394 
759 2 5.50444 12.2047 7.75631 
326 1 0.345457 14.6269 7.35679 
329 2 2.8822 14.5896 7.43948 
746 1 5.43565 14.5248 7.22329 
369 1 0.524815 11.5397 5.61309 
376 2 2.98593 11.4257 5.53377 
338 2 0.460161 10.4954 10.8354 
336 1 3.00577 10.6603 10.7397 
296 1 0.366805 11.2767 13.081 
340 2 2.9177 12.8714 10.1496 
753 1 5.34505 12.9524 9.99558 
758 2 5.32184 10.597 10.6524 
721 2 5.25413 13.6963 12.3731 
301 2 0.363087 13.6575 12.6337 
716 1 5.23827 11.429 12.9827 
297 1 2.81281 13.6999 12.5391 
299 2 2.82328 11.3717 13.0902 
333 1 0.470501 12.8464 10.3008 
298 1 2.79158 11.9426 15.4533 
715 1 5.08576 14.2478 14.7978 
720 2 5.14769 11.9585 15.4457 
295 1 0.366157 14.3608 14.9651 
302 2 2.70807 14.2944 14.8932 
300 2 0.335548 12.073 15.4141 
685 2 5.0733 14.931 17.1667 
261 1 2.76822 15.0853 17.2347 
265 2 0.352878 15.1198 17.2575 
269 1 2.76044 10.356 18.1636 
693 2 5.23427 10.2535 18.3142 
267 1 0.455149 10.8978 20.7749 
684 2 5.13466 13.422 20.1277 
274 2 2.88159 11.0482 20.6664 
687 1 5.23344 11.0195 20.7036 
262 1 2.77874 13.3193 20.1877 
264 2 0.414212 13.203 20.0778 
263 2 2.75248 12.767 17.7678 
273 2 0.391547 10.4158 18.3151 
260 1 0.391957 12.7215 17.7527 
680 1 5.0969 12.5553 17.8672 
231 1 2.98601 11.6075 23.1313 
225 2 2.85726 14.0143 22.4158 
655 2 5.41209 11.557 22.9146 
222 1 0.475155 14.0187 22.3598 
235 2 0.440982 11.7891 22.9954 
642 1 5.27163 14.1013 22.4558 
131 2 3.33775 12.8385 25.0464 
93 2 15.1498 14.5356 24.5697 
1064 1 6.0829 13.0351 24.6327 
939 1 0.594592 12.0542 25.3411 
843 2 6.19747 10.8536 25.6762 
930 1 3.66423 10.9144 25.9895 
532 1 4.7961 13.7744 26.8875 
507 2 3.88114 12.4401 28.2205 
1003 1 1.03796 14.3629 29.0802 
3 2 6.85814 14.5557 26.8046 
1049 1 6.05069 11.0577 28.1772 
1069 1 1.29179 11.1589 28.2806 
991 2 0.723117 13.0466 27.1517 
113 1 2.96879 11.1695 33.7787 
183 2 0.431279 13.9454 33.8054 
481 1 4.48163 12.3685 30.9085 
501 1 2.1379 13.624 33.2306 
153 2 5.22468 10.9042 32.5576 
534 1 6.19223 14.3151 31.9911 
561 2 2.19921 12.4326 31.09 
1088 2 18.3075 14.6958 32.1775 
116 2 3.70032 10.4761 29.8542 
136 1 4.26729 14.3409 36.1812 
949 2 1.98578 14.2475 35.6512 
646 2 6.64638 13.8713 36.3252 
451 2 6.72147 11.2313 37.626 
1086 1 2.42114 13.1434 37.4243 
81 1 7.00787 12.0477 35.3861 
903 1 5.74388 9.86965 34.8698 
39 2 4.12669 12.0429 35.21 
885 1 4.2721 10.9902 38.5402 
635 2 2.94961 12.9591 39.4139 
911 1 6.48635 10.6813 39.8924 
1046 2 4.93994 14.9952 39.0953 
526 1 5.93375 14.3947 41.0657 
606 1 15.7903 11.6865 40.0891 
577 1 6.88246 14.0451 38.5554 
920 2 0.737189 13.4353 41.5331 
31 2 2.70343 14.2733 45.6844 
112 1 6.53057 14.0294 44.4224 
633 2 3.10694 11.4697 45.1416 
978 1 6.18439 11.9755 42.842 
9 1 3.04977 13.3044 43.9058 
1029 2 4.19936 14.4026 42.7029 
209 1 14.2548 15.1265 43.2459 
974 2 2.29363 10.6767 41.9387 
556 1 15.4143 13.8616 47.1935 
657 1 4.11445 13.2342 47.2183 
847 2 5.477 12.5174 49.1093 
943 2 2.62129 12.5222 49.0709 
917 1 4.09438 10.8275 50.2219 
2 1 0.435284 10.4965 50.4282 
605 1 2.04415 11.133 47.4035 
670 2 4.55923 15.1896 47.9108 
906 2 4.55409 14.2157 53.138 
891 2 1.83609 14.3631 52.2962 
896 1 3.70404 14.1062 50.4101 
431 1 2.93163 12.4141 52.8984 
49 2 2.2847 10.5685 51.8063 
876 1 1.0369 14.7238 54.2779 
853 2 5.67553 11.1665 51.5087 
863 2 7.31755 13.1924 54.8257 
155 1 1.89027 12.0423 55.7845 
589 2 0.212788 13.7069 56.285 
899 2 3.21957 12.094 57.4017 
115 2 3.38079 14.2244 58.3019 
940 1 0.949762 14.4025 58.3013 
65 2 14.8886 10.9812 54.3057 
539 1 3.45332 9.78276 56.9341 
17 1 6.05158 11.2406 55.8073 
33 1 6.97894 11.0012 58.2981 
232 1 5.66001 15.3538 54.5324 
1055 2 3.74483 10.8117 54.7306 
66 2 1.27438 12.3386 61.1656 
173 1 3.86594 12.4189 59.8276 
97 1 5.2968 10.3198 61.2419 
874 1 7.22007 12.9184 60.4643 
966 2 3.98997 12.0637 61.9862 
435 2 5.58689 14.1205 61.1804 
55 1 15.3668 10.5389 59.5268 
52 2 2.87054 14.1798 60.8273 
982 2 2.75001 10.0129 59.7816 
518 1 2.05146 10.9086 62.6581 
395 1 0.521257 15.2797 -0.157083 
420 2 2.93995 -0.63267 -1.02898 
419 1 0.631839 -0.298041 -0.98775 
813 2 5.45155 16.6269 -1.28807 
392 1 3.17575 16.9544 -0.60435 
393 2 0.872464 17.4777 -0.729944 
839 1 5.09862 -1.1881 -0.932628 
837 2 5.50327 -0.0869006 1.21618 
398 2 2.86781 14.8153 0.0495872 
416 1 3.1255 0.0273255 1.27928 
358 1 2.79399 18.6073 4.09019 
360 2 0.369247 18.4177 4.06064 
780 2 5.19074 18.4585 4.09934 
787 2 5.45973 15.4737 2.19351 
368 2 2.61756 16.2556 4.7138 
781 1 5.25608 16.2238 4.62923 
363 1 2.91841 15.663 2.45698 
359 2 3.20061 17.8262 1.73428 
361 1 0.11194 15.9994 4.64642 
777 1 5.69466 17.6601 1.8307 
357 1 0.648729 17.7793 1.85073 
367 2 0.430939 15.3863 2.33357 
417 2 0.644532 0.0198365 1.4095 
745 1 5.25689 17.5156 9.08126 
323 2 2.60099 19.2469 6.37207 
327 1 2.67401 16.8428 6.94992 
331 2 0.208903 17.0515 6.82687 
741 1 4.97664 19.3917 6.34918 
751 2 5.10482 16.9452 6.87003 
325 1 0.45401 17.6354 9.03614 
332 2 2.85928 17.5594 9.20139 
321 1 0.287368 19.46 6.27597 
387 1 2.61037 -0.154767 8.58621 
808 2 5.17586 -0.171957 8.5606 
388 2 0.255118 -0.025409 8.51698 
288 1 0.349476 15.9776 11.9193 
289 1 2.73544 18.2751 11.4537 
291 2 2.78107 16.0012 12.0807 
293 2 0.318058 18.327 11.402 
708 1 5.23722 15.9755 11.8382 
713 2 5.16809 18.2683 11.3764 
328 1 2.82674 15.1901 9.75488 
330 2 0.475342 15.2483 9.66765 
750 2 5.38934 15.2063 9.53701 
287 1 0.227137 18.9652 13.7449 
290 1 2.70547 16.6923 14.3627 
292 2 0.346629 16.6424 14.3703 
672 1 5.20076 17.3411 16.4958 
707 1 5.20331 18.9415 13.7296 
712 2 5.18843 16.5788 14.1828 
252 1 0.432397 17.514 16.8091 
253 1 2.82986 19.8319 16.0954 
255 2 2.83864 17.4586 16.7129 
677 2 5.3165 19.6493 15.9938 
294 2 2.65182 18.9571 13.8129 
254 1 2.83951 18.2048 18.9679 
637 1 5.30356 18.6565 21.2081 
259 1 0.335523 15.6476 19.6197 
266 2 2.72063 15.758 19.5871 
676 2 5.1987 18.0081 18.8144 
679 1 5.06679 15.7065 19.5155 
219 2 2.75699 18.7698 21.1782 
256 2 0.315656 18.1038 19.0433 
217 1 0.235891 18.8034 21.2285 
227 2 0.42236 16.4385 21.6729 
647 2 5.34858 16.4131 21.8589 
228 2 3.18618 17.0788 24.3766 
640 2 5.24657 19.2721 23.5089 
221 1 0.710658 16.9194 23.8832 
218 1 2.91966 19.1142 23.5094 
641 1 5.97514 16.4852 24.7205 
220 2 0.455652 19.2706 23.4615 
223 1 2.97134 16.4691 21.8774 
1007 2 3.56849 19.7187 26.0463 
149 1 3.29241 14.9776 24.5391 
1027 1 2.63663 17.8965 26.7244 
147 1 6.21961 17.1476 28.6779 
1053 2 15.5363 16.8501 27.9811 
71 1 0.617903 15.3204 26.6409 
121 1 15.0091 18.4366 29.5531 
601 1 4.11458 19.0151 29.0688 
627 2 5.86597 15.4133 29.9999 
648 2 5.87951 17.1753 26.6453 
574 2 3.46778 15.5413 26.8662 
936 2 16.5854 -0.312891 28.5956 
541 1 14.6588 18.5369 25.7743 
636 2 6.3572 16.5779 33.3599 
138 1 3.48954 16.415 30.7426 
1081 2 4.67248 18.8856 31.5405 
665 1 15.1453 16.067 31.6649 
249 2 1.59608 17.8145 31.6037 
607 1 4.06627 16.6685 33.3853 
208 2 12.8148 16.4408 33.063 
1006 1 0.972907 19.3385 34.3677 
545 2 3.73245 16.9904 35.5254 
993 2 5.05226 18.4214 37.2969 
621 1 6.97292 18.324 35.1963 
421 1 0.475072 15.5762 36.6893 
14 2 1.88372 18.3818 36.5569 
569 1 3.63207 -0.740973 35.895 
578 1 3.69324 16.6378 37.9032 
22 2 1.92668 -0.759999 39.3809 
580 2 7.81548 15.3139 40.2821 
20 1 15.455 -1.1782 41.5738 
502 1 5.8596 17.6382 39.3936 
109 2 6.38715 19.5959 40.0422 
529 2 3.47559 17.3381 40.3701 
158 1 0.798156 17.8259 38.3699 
179 1 2.4581 14.9669 40.3656 
904 1 4.06698 20.408 42.043 
452 2 3.32902 17.8658 44.1523 
211 1 1.41414 -0.182709 45.2501 
5 1 4.64794 19.1548 45.3412 
945 1 15.7986 16.9997 44.4922 
517 1 4.36551 17.0687 42.4538 
88 2 6.2587 18.8218 43.4971 
496 2 6.34509 15.9633 42.8375 
95 2 5.97792 17.525 46.4446 
59 2 4.22101 0.774282 44.4657 
877 2 2.93537 -0.883964 46.664 
1000 2 0.97174 16.0342 47.9075 
1040 2 2.2879 16.2134 50.2127 
477 2 0.107724 18.9314 47.1559 
984 1 6.44619 16.7401 48.4443 
51 2 7.62367 -2.08669 49.4279 
124 2 4.73669 17.8372 49.419 
938 1 3.01086 17.0338 48.3218 
203 1 3.2278 -0.120972 49.0732 
50 2 7.15175 15.0864 49.7723 
10 1 5.78221 19.0574 52.3413 
108 2 5.89524 17.6282 53.8865 
422 1 3.49498 16.0466 52.0438 
594 1 1.20112 19.8524 51.7152 
981 2 3.66496 18.293 52.4614 
921 1 14.0988 17.9866 53.4534 
485 2 2.23545 16.2676 54.6309 
947 1 3.42242 16.0609 56.7349 
18 1 2.9435 18.3663 54.7484 
442 2 4.27508 18.0127 56.7119 
63 1 0.438006 18.0941 58.5126 
965 2 1.37795 -0.824242 56.7234 
864 2 5.54266 15.473 56.75 
925 2 2.00914 16.7287 58.0081 
438 1 6.56234 18.928 58.5795 
599 1 4.91107 19.3842 62.0618 
92 1 3.10442 15.9136 59.8894 
554 2 16.0551 17.2029 60.6805 
453 1 15.0561 17.1831 62.4891 
1009 2 5.27767 16.4555 60.2692 
433 2 4.61251 19.3811 59.6341 
430 1 5.26007 15.7587 62.2376 
1035 1 2.60608 19.3445 60.9002 
1002 2 0.510315 19.5915 60.0989 
468 1 6.443 15.0644 58.7913 
427 2 2.85075 16.1304 62.9272 
980 2 9.54092 1.60082 63.9254 
439 1 11.7826 2.06938 64.1449 
836 1 7.87934 0.024112 1.00548 
258 2 9.95283 5.01453 -0.562997 
324 2 12.7799 2.54481 0.59571 
462 1 9.92718 2.60084 0.255237 
831 2 7.74487 2.63006 0.279993 
829 1 7.62882 4.93401 -0.931545 
944 2 13.6524 1.7671 63.2619 
394 1 12.3219 5.02811 0.0239488 
892 2 -1.00897 5.3436 63.8885 
118 2 10.3334 0.220371 1.05011 
322 2 10.3127 3.17916 2.69682 
391 1 12.73 3.28417 2.79762 
838 2 8.05231 0.998077 3.31588 
111 2 12.7419 0.796291 3.482 
184 1 10.3818 0.860609 3.35267 
1218 1 10.1938 3.8432 5.026 
830 1 7.94049 3.19556 2.57034 
1221 2 12.6622 3.98183 5.05902 
801 2 7.87825 3.82736 4.92865 
182 1 12.6976 0.222707 1.13554 
1162 1 12.5741 1.63636 5.77558 
1220 1 12.4259 4.80154 7.29807 
1222 2 10.1013 4.59618 7.27184 
810 2 7.67772 2.12774 8.05297 
1022 2 12.4869 2.35307 7.96986 
1164 1 10.0889 2.24139 8.02312 
1024 2 10.1476 1.54892 5.71166 
800 1 7.69819 4.46856 7.31921 
806 1 7.64383 1.52244 5.72076 
1091 2 10.0842 -0.0979231 8.63092 
771 1 7.75273 3.02899 10.3027 
773 2 7.60191 0.59445 10.8012 
1190 1 9.9486 0.521885 10.9537 
1191 1 12.5019 3.1464 10.1738 
1193 2 12.3315 0.768388 10.9206 
1195 2 10.1084 2.99745 10.2167 
1196 2 12.4143 3.56632 12.4961 
776 2 7.57773 3.55941 12.5498 
1189 1 10.0043 3.64077 12.4747 
1194 2 9.89346 1.2634 13.1923 
1192 1 12.3117 1.18105 13.1656 
772 1 7.52012 1.07316 13.1322 
733 1 7.52363 4.17799 14.7852 
738 2 7.64551 4.87332 17.0738 
1152 1 9.97858 1.91867 15.4431 
1153 1 12.4736 4.24718 14.7443 
1155 2 12.4022 1.86016 15.3886 
1157 2 10.0039 4.25527 14.7476 
735 2 7.64478 1.88823 15.428 
1156 2 10.1525 2.58282 17.7918 
734 1 7.74666 2.55928 17.7791 
1124 1 12.4643 1.10238 20.9404 
1116 1 10.0699 3.25879 20.0661 
699 2 7.68835 3.24057 20.0443 
1119 2 12.4899 3.34714 19.7473 
704 1 7.61943 0.920053 20.8585 
1125 2 10.0076 0.92284 20.9774 
1160 2 12.5071 0.375045 18.5077 
1159 1 10.1465 0.248632 18.7054 
740 2 7.86361 0.179944 18.513 
1154 1 12.5512 2.57752 17.588 
520 1 9.9368 4.60951 24.7784 
990 1 12.3005 2.43124 25.491 
1118 1 12.6145 3.53573 22.076 
1120 2 10.0768 3.93104 22.4074 
1123 1 9.99947 1.69941 23.2888 
1126 2 12.4819 1.49353 23.3503 
246 1 8.16381 1.42519 25.3223 
698 1 7.75646 3.80351 22.3928 
889 2 12.5673 4.4648 24.4136 
706 2 7.59983 1.39163 23.0829 
955 2 7.60556 4.50382 24.5986 
566 2 10.2801 2.21707 26.1245 
250 2 10.0707 19.0527 23.9308 
581 2 13.3819 20.4175 25.7021 
64 1 9.16014 3.93866 27.2919 
67 2 10.2749 3.99191 30.0453 
956 2 13.7696 2.35085 29.7507 
77 1 11.594 2.69719 28.9083 
1014 1 8.46968 20.1432 28.6487 
1084 2 9.53767 1.9734 29.1286 
662 2 7.61958 2.48658 27.1992 
588 2 8.74378 3.15926 33.4194 
583 1 12.7398 0.738513 30.9333 
592 1 13.1158 3.73102 32.0572 
30 2 8.68757 -0.227692 31.3467 
1034 1 8.31393 3.19367 30.7678 
1043 1 10.5806 1.70698 31.9075 
1080 1 9.93432 4.52186 34.4475 
191 2 11.5978 3.89036 33.4036 
941 2 7.43571 2.16238 36.4723 
483 1 9.29629 0.578362 36.2179 
875 1 -0.114572 4.58547 36.019 
61 1 7.62155 4.17595 37.2059 
514 2 -4.72174 4.1263 37.0127 
584 1 11.1607 2.21456 37.6663 
842 1 12.9677 1.85031 35.4807 
1045 2 12.5898 3.95075 37.1441 
619 2 11.4491 19.7952 35.725 
460 2 0.239178 2.13159 36.7305 
629 1 12.7393 20.1504 38.5766 
862 2 11.0795 20.2569 42.0988 
946 1 8.62212 2.90209 41.0033 
207 2 -1.38034 2.29892 39.4684 
105 1 13.5642 1.41584 41.6143 
56 1 13.7757 4.46052 40.0463 
21 2 10.356 22.0706 39.5854 
972 2 8.68708 2.01959 43.3417 
456 1 9.0767 4.72847 44.0942 
1082 2 10.9334 0.975487 45.8045 
425 1 10.6343 21.5704 43.5857 
510 1 8.7821 1.36458 46.0066 
236 2 12.8674 2.42284 43.874 
626 2 8.21861 4.86101 46.1522 
511 1 -2.12494 2.70466 46.2934 
13 2 10.3294 3.36979 46.2194 
880 2 1.34623 1.83145 45.5931 
459 2 9.11572 4.87725 41.3633 
1032 2 11.6044 -0.0723279 48.8427 
84 1 12.8383 3.63379 49.417 
1011 1 -0.708549 1.06057 47.9561 
57 2 11.2652 4.74886 49.748 
80 2 8.6077 0.235528 47.7374 
60 2 -0.974885 4.08565 51.5074 
886 1 11.913 3.225 53.6587 
102 2 9.64749 2.81041 52.7709 
859 1 11.5453 1.43453 50.7338 
868 1 11.3774 0.661679 53.6379 
954 1 9.46869 4.81265 51.0048 
444 2 13.5785 1.64709 53.8968 
492 1 7.83435 1.74588 51.6839 
465 1 11.3059 3.98046 57.5895 
34 1 8.52979 3.15986 54.8957 
550 1 9.53579 0.398096 55.9354 
871 2 8.47324 22.6143 57.0308 
563 1 12.306 1.05266 58.1618 
429 1 0.203246 3.92383 56.2898 
68 2 10.657 3.49144 55.5059 
620 2 -3.21396 2.79645 59.3498 
983 1 8.66802 1.46643 58.878 
977 1 7.62907 4.97308 61.1552 
426 1 13.9245 20.4538 61.6777 
53 1 7.80433 0.897134 62.7938 
600 2 11.7533 3.87449 62.0765 
547 1 11.7359 1.78086 61.254 
918 1 -0.958663 3.78485 59.4465 
1087 1 9.6303 4.12382 62.7633 
1010 2 9.16112 1.62304 60.6865 
628 2 -0.215021 2.12761 60.4681 
821 1 7.29469 9.50057 -1.8701 
538 2 10.8304 9.3457 -2.15509 
604 2 12.4721 7.54888 -0.626073 
823 2 7.53742 7.14256 -1.18527 
678 1 13.1438 9.62633 -1.48081 
742 1 9.84069 7.46758 -1.36173 
531 2 12.6443 10.1177 0.79584 
744 1 10.1717 9.90793 0.189135 
671 1 12.7502 7.86552 1.51667 
834 2 7.87489 5.44149 1.68875 
1219 1 12.6616 6.33903 4.38774 
1223 2 10.342 6.20865 4.23543 
1213 2 12.6825 8.57553 3.75222 
1210 1 10.2336 8.44424 3.38377 
251 2 12.8288 5.60543 2.18179 
464 1 10.2474 5.55341 1.82235 
793 2 7.89385 8.40903 3.41008 
602 2 10.183 7.77802 1.14627 
799 1 7.97894 6.07032 4.09597 
822 1 7.72287 7.70235 1.14969 
1183 1 12.5085 7.74557 9.03271 
1187 2 10.1496 7.7783 8.95717 
1212 1 12.6811 9.28976 5.98959 
1214 2 10.3433 9.2463 5.88534 
1217 1 10.0952 7.01279 6.59914 
1224 2 12.523 7.0462 6.6852 
763 1 7.76275 7.51158 8.94737 
792 1 8.00327 9.0784 5.75322 
804 2 7.76499 6.78072 6.52233 
757 2 7.79292 9.69135 8.23943 
1177 2 12.7574 9.97919 8.39938 
1188 2 12.4862 8.22396 11.3618 
1181 1 10.0546 8.41896 11.32 
1185 2 12.54 5.44791 9.58615 
1184 1 12.3954 5.96443 11.8998 
1186 2 10.0275 6.01664 11.8266 
764 1 7.65458 6.02257 12.0021 
768 2 7.68771 8.27329 11.3077 
725 1 7.64845 9.00289 13.6749 
1182 1 10.0668 5.41404 9.53578 
765 2 7.70076 5.28438 9.67691 
1145 1 12.3853 9.0093 13.6288 
1144 1 10.0134 6.63641 14.1462 
1147 2 12.4951 6.6102 14.1118 
1150 2 12.527 9.69755 15.9017 
1148 2 10.1058 7.2412 16.3671 
1146 1 12.6226 7.29412 16.3125 
726 1 7.58699 7.28107 16.4746 
730 2 7.61279 9.64749 15.971 
1143 1 10.0505 9.68585 15.9748 
727 2 7.56954 6.62878 14.2225 
1158 2 12.6154 4.97765 16.9855 
1151 1 10.1151 4.92838 17.0038 
1149 2 10.0213 9.07193 13.6407 
697 1 7.5777 5.59397 19.2787 
1117 1 12.5449 5.66265 19.2098 
1121 2 10.0578 5.61612 19.261 
1111 2 12.5443 8.00361 18.5559 
691 2 7.61275 7.90268 18.7699 
1108 1 10.1046 8.01379 18.5918 
1112 2 10.0956 8.52775 20.8349 
1110 1 12.5256 8.61317 20.8327 
690 1 7.67468 8.46424 21.0242 
1122 2 12.5469 6.05151 21.4561 
1115 1 10.093 6.10607 21.5438 
1073 2 12.5514 9.11075 23.2836 
1019 1 11.9894 9.71864 25.4549 
653 2 7.69948 8.99164 23.23 
1079 1 12.591 6.60451 23.7138 
1083 2 10.0161 6.61753 23.9974 
1070 1 10.2302 8.6527 23.0739 
659 1 7.57377 6.95005 24.3915 
702 2 7.60499 6.19082 21.8054 
205 2 11.2381 6.98601 28.4147 
1056 2 14.1034 6.61657 29.4778 
475 1 13.1427 5.35875 26.8995 
986 2 7.85979 4.99673 29.0252 
224 1 9.8385 7.1414 26.9201 
658 1 13.1947 8.18149 27.7298 
187 1 12.1298 5.32084 29.9247 
1089 2 9.55076 9.62303 27.2098 
1028 1 9.42398 9.14451 29.348 
107 1 9.64705 6.3949 29.6496 
168 2 7.72045 6.42897 26.4558 
499 2 12.1649 7.33742 25.8907 
995 1 13.7629 6.90413 34.2006 
48 1 7.50594 5.52487 32.0352 
568 1 10.9451 6.67387 32.5416 
1004 1 -0.48029 8.63663 31.0482 
241 2 13.1148 6.74518 32.1341 
500 2 -3.09782 8.63868 30.7846 
206 2 7.93204 7.65027 28.9701 
210 1 9.57935 8.60281 34.4906 
597 2 7.67256 8.92272 35.4569 
134 2 10.1474 9.13685 37.371 
632 1 11.2227 5.44679 38.0091 
669 2 13.9718 9.24084 36.4705 
1041 1 11.9041 8.01133 36.3816 
870 2 11.1578 6.37127 35.9214 
849 1 8.04961 7.92981 37.3625 
664 2 11.5107 9.86044 34.3641 
544 2 8.74088 6.50893 34.0739 
576 1 8.46414 6.92937 41.1062 
596 2 9.62301 8.87565 41.107 
1005 1 10.9296 6.39787 42.0826 
1044 1 13.2606 8.44231 40.5778 
15 2 8.45605 6.50609 38.1978 
472 2 -1.90604 6.11954 39.9032 
952 1 10.7365 10.0078 39.5245 
200 2 13.7252 10.5575 40.1231 
197 2 12.4407 5.84672 43.2067 
175 2 -0.917088 8.52974 46.3902 
11 1 7.84145 7.93256 45.1816 
618 2 8.78415 9.37121 44.1305 
41 1 -0.212705 7.9176 44.1528 
667 1 12.7897 6.55541 45.5757 
935 2 9.04545 6.83789 43.5659 
8 2 12.3895 9.01714 42.8546 
32 2 8.01968 9.98599 47.0003 
948 2 -0.81648 7.12084 49.0501 
469 2 10.5554 7.34022 46.7712 
525 1 10.0483 5.18265 47.5958 
953 1 8.10361 7.82094 49.4954 
164 1 11.427 7.22317 49.0321 
157 1 10.9274 9.70322 46.568 
905 2 11.2091 9.32343 48.6717 
82 1 -0.942022 9.43386 48.5361 
1076 2 12.5388 4.86126 46.9848 
571 2 7.97667 5.40958 49.4642 
146 2 9.92985 7.14073 50.7122 
548 1 12.2657 6.10505 52.1215 
878 2 8.18154 7.67001 53.2621 
75 2 8.73266 10.0874 50.5781 
897 2 10.5334 5.55564 53.2794 
480 2 10.9134 9.95663 53.9617 
1036 1 10.1061 8.57359 52.4967 
961 1 8.3201 5.58337 53.5731 
46 1 0.152262 6.48681 50.8882 
914 2 13.0587 4.76703 55.0132 
12 1 8.65016 8.66884 55.2227 
924 1 10.9863 5.8788 55.7715 
436 2 10.5189 6.26037 58.2095 
962 1 11.1439 8.47193 57.5738 
652 1 8.43828 8.12855 57.8371 
908 2 -1.60172 7.63177 56.5562 
969 1 13.6705 8.66969 54.3445 
668 2 -2.61929 7.4531 53.9853 
1031 2 12.9505 7.54753 61.7271 
565 2 10.104 6.37184 62.4147 
72 1 11.5977 9.10608 61.2271 
881 1 13.7726 5.24286 61.8336 
36 1 9.41026 7.82007 60.6907 
123 2 7.86744 8.35029 62.0327 
549 1 11.048 5.60254 60.5736 
70 1 13.0266 7.2354 58.9324 
919 2 -0.317157 10.3382 62.543 
573 2 12.3178 12.1977 63.5916 
129 1 7.96641 14.5545 63.2894 
814 2 10.2734 12.3642 0.0679069 
882 1 12.5501 12.479 0.0971122 
816 1 7.97592 12.4213 0.116262 
818 2 7.84935 14.8076 -0.106236 
101 2 8.24021 11.3696 63.861 
884 1 10.2441 14.8267 -0.617712 
845 1 11.8585 14.4287 62.9724 
811 2 12.6664 14.8602 -0.167076 
826 2 7.75001 10.0269 0.557 
527 1 10.1648 11.5501 62.7633 
785 2 7.71781 13.172 2.47611 
1211 1 12.281 10.8251 3.10587 
1215 2 10.0151 10.6395 2.63598 
784 1 7.68449 13.7236 4.86897 
1202 1 10.1907 13.0588 2.38828 
1205 2 12.5585 13.1069 2.58485 
1204 1 12.3963 13.8312 4.96317 
791 1 7.74783 10.7794 2.84714 
1206 2 10.0171 13.8891 4.73678 
1209 1 10.3081 11.5085 5.22934 
755 1 8.15918 11.8638 7.66338 
1175 1 12.7409 12.2397 7.89529 
1179 2 10.4309 12.2787 7.5799 
748 1 7.91157 15.1409 9.45941 
1166 1 10.19 14.5321 7.06947 
1169 2 12.5414 14.5744 7.22216 
749 2 7.82143 14.4611 7.17086 
1174 1 10.2951 10.0159 8.31863 
796 2 7.90681 11.3513 5.26694 
1216 2 12.6688 11.5718 5.51718 