ITEM: TIMESTEP
0
ITEM: NUMBER OF ATOMS
65
ITEM: BOX BOUNDS pp pp pp
0.0 9.7
0.0 9.7
0.0 9.7
ITEM: ATOMS id type x y z
1 1 0.0 0.0 0.0
2 1 2.425 2.425 0.0
3 1 2.425 0.0 2.425
4 1 0.0 2.425 2.425
5 1 4.85 0.0 0.0
6 1 7.275 2.425 0.0
7 1 7.275 0.0 2.425
8 1 4.85 2.425 2.425
9 1 0.0 4.85 0.0
10 1 2.425 7.275 0.0
11 1 2.425 4.85 2.425
12 1 0.0 7.275 2.425
13 1 4.85 4.85 0.0
14 1 7.275 7.275 0.0
15 1 7.275 4.85 2.425
16 1 4.85 7.275 2.425
17 1 0.0 0.0 4.85
18 1 2.425 2.425 4.85
19 1 2.425 0.0 7.275
20 1 0.0 2.425 7.275
21 1 4.85 0.0 4.85
22 1 7.275 2.425 4.85
23 1 7.275 0.0 7.275
24 1 4.85 2.425 7.275
25 1 0.0 4.85 4.85
26 1 2.425 7.275 4.85
27 1 2.425 4.85 7.275
28 1 0.0 7.275 7.275
29 1 4.85 4.85 4.85
30 1 7.275 7.275 4.85
31 1 7.275 4.85 7.275
32 1 4.85 7.275 7.275
33 2 0.0 2.425 0.0
34 2 0.0 0.0 2.425
35 2 2.425 0.0 0.0
36 2 2.425 2.425 2.425
37 2 4.85 2.425 0.0
38 2 4.85 0.0 2.425
39 2 7.275 0.0 0.0
40 2 7.275 2.425 2.425
41 2 0.0 7.275 0.0
42 2 0.0 4.85 2.425
43 2 2.425 4.85 0.0
44 2 2.425 7.275 2.425
45 2 4.85 7.275 0.0
46 2 4.85 4.85 2.425
47 2 7.275 4.85 0.0
48 2 7.275 7.275 2.425
49 2 0.0 2.425 4.85
50 2 0.0 0.0 7.275
51 2 2.425 0.0 4.85
52 2 2.425 2.425 7.275
53 2 4.85 2.425 4.85
54 2 4.85 0.0 7.275
55 2 7.275 0.0 4.85
56 2 7.275 2.425 7.275
57 2 0.0 7.275 4.85
58 2 0.0 4.85 7.275
59 2 2.425 4.85 4.85
60 2 2.425 7.275 7.275
61 2 4.85 7.275 4.85
62 2 4.85 4.85 7.275
63 2 7.275 4.85 4.85
64 2 7.275 7.275 7.275
65 2 1.2125 1.2125 1.2125
