ITEM: TIMESTEP
0
ITEM: NUMBER OF ATOMS
63
ITEM: BOX BOUNDS pp pp pp
0.0 9.7
0.0 9.7
0.0 9.7
ITEM: ATOMS id type x y z
1 1 0.0 0.0 0.0
2 1 2.425 2.425 0.0
3 1 2.425 0.0 2.425
4 1 0.0 2.425 2.425
5 1 4.85 0.0 0.0
6 1 7.275 2.425 0.0
7 1 7.275 0.0 2.425
8 1 4.85 2.425 2.425
9 1 0.0 4.85 0.0
10 1 2.425 7.275 0.0
11 1 2.425 4.85 2.425
12 1 0.0 7.275 2.425
13 1 4.85 4.85 0.0
14 1 7.275 7.275 0.0
15 1 7.275 4.85 2.425
16 1 4.85 7.275 2.425
17 1 0.0 0.0 4.85
18 1 2.425 2.425 4.85
19 1 2.425 0.0 7.275
20 1 0.0 2.425 7.275
21 1 4.85 0.0 4.85
22 1 7.275 2.425 4.85
23 1 7.275 0.0 7.275
24 1 4.85 2.425 7.275
25 1 0.0 4.85 4.85
26 1 2.425 7.275 4.85
27 1 2.425 4.85 7.275
28 1 0.0 7.275 7.275
29 1 4.85 4.85 4.85
30 1 7.275 7.275 4.85
31 1 7.275 4.85 7.275
32 1 4.85 7.275 7.275
33 2 0.0 2.425 0.0
34 2 2.425 0.0 0.0
35 2 2.425 2.425 2.425
36 2 4.85 2.425 0.0
37 2 4.85 0.0 2.425
38 2 7.275 0.0 0.0
39 2 7.275 2.425 2.425
40 2 0.0 7.275 0.0
41 2 0.0 4.85 2.425
42 2 2.425 4.85 0.0
43 2 2.425 7.275 2.425
44 2 4.85 7.275 0.0
45 2 4.85 4.85 2.425
46 2 7.275 4.85 0.0
47 2 7.275 7.275 2.425
48 2 0.0 2.425 4.85
49 2 0.0 0.0 7.275
50 2 2.425 0.0 4.85
51 2 2.425 2.425 7.275
52 2 4.85 2.425 4.85
53 2 4.85 0.0 7.275
54 2 7.275 0.0 4.85
55 2 7.275 2.425 7.275
56 2 0.0 7.275 4.85
57 2 0.0 4.85 7.275
58 2 2.425 4.85 4.85
59 2 2.425 7.275 7.275
60 2 4.85 7.275 4.85
61 2 4.85 4.85 7.275
62 2 7.275 4.85 4.85
63 2 7.275 7.275 7.275
