ITEM: TIMESTEP
0
ITEM: NUMBER OF ATOMS
65
ITEM: BOX BOUNDS pp pp pp
0.0 9.7
0.0 9.7
0.0 9.7
ITEM: ATOMS id type x y z
1 1 0.37 0.37 0.37
2 1 -0.37 -0.37 -0.37
3 1 2.625 2.625 -0.2
4 1 2.425 0.0 2.425
5 1 0.0 2.425 2.425
6 1 4.85 0.0 0.0
7 1 7.275 2.425 0.0
8 1 7.275 0.0 2.425
9 1 4.85 2.425 2.425
10 1 0.0 4.85 0.0
11 1 2.425 7.275 0.0
12 1 2.425 4.85 2.425
13 1 0.0 7.275 2.425
14 1 4.85 4.85 0.0
15 1 7.275 7.275 0.0
16 1 7.275 4.85 2.425
17 1 4.85 7.275 2.425
18 1 0.0 0.0 4.85
19 1 2.425 2.425 4.85
20 1 2.425 0.0 7.275
21 1 0.0 2.425 7.275
22 1 4.85 0.0 4.85
23 1 7.275 2.425 4.85
24 1 7.275 0.0 7.275
25 1 4.85 2.425 7.275
26 1 0.0 4.85 4.85
27 1 2.425 7.275 4.85
28 1 2.425 4.85 7.275
29 1 0.0 7.275 7.275
30 1 4.85 4.85 4.85
31 1 7.275 7.275 4.85
32 1 7.275 4.85 7.275
33 1 4.85 7.275 7.275
34 2 0.0 2.425 0.0
35 2 0.0 0.0 2.425
36 2 2.425 0.0 0.0
37 2 2.425 2.425 2.425
38 2 4.85 2.425 0.0
39 2 4.85 0.0 2.425
40 2 7.275 0.0 0.0
41 2 7.275 2.425 2.425
42 2 0.0 7.275 0.0
43 2 0.0 4.85 2.425
44 2 2.425 4.85 0.0
45 2 2.425 7.275 2.425
46 2 4.85 7.275 0.0
47 2 4.85 4.85 2.425
48 2 7.275 4.85 0.0
49 2 7.275 7.275 2.425
50 2 0.0 2.425 4.85
51 2 0.0 0.0 7.275
52 2 2.425 0.0 4.85
53 2 2.425 2.425 7.275
54 2 4.85 2.425 4.85
55 2 4.85 0.0 7.275
56 2 7.275 0.0 4.85
57 2 7.275 2.425 7.275
58 2 0.0 7.275 4.85
59 2 0.0 4.85 7.275
60 2 2.425 4.85 4.85
61 2 2.425 7.275 7.275
62 2 4.85 7.275 4.85
63 2 4.85 4.85 7.275
64 2 7.275 4.85 4.85
65 2 7.275 7.275 7.275
