ITEM: TIMESTEP
0
ITEM: NUMBER OF ATOMS
73
ITEM: BOX BOUNDS pp pp pp
0.0 10.288404
0.0 10.288404
0.0 9.7
ITEM: ATOMS id type x y z
1 1 -1.707875064 0.0 -0.8536
2 1 1.707875064 0.0 0.8536
3 1 0.0 3.4294645705 0.0
4 1 3.4294645705 0.0 0.0
5 1 1.7147374295 1.7147374295 2.425
6 1 0.0 6.8589394295 0.0
7 1 3.4294645705 6.8589394295 0.0
8 1 1.7147374295 5.144202 2.425
9 1 1.7147374295 8.5736665705 2.425
10 1 3.4294645705 3.4294645705 0.0
11 1 6.8589394295 3.4294645705 0.0
12 1 5.144202 1.7147374295 2.425
13 1 5.144202 5.144202 2.425
14 1 6.8589394295 0.0 0.0
15 1 8.5736665705 1.7147374295 2.425
16 1 5.144202 8.5736665705 2.425
17 1 6.8589394295 6.8589394295 0.0
18 1 8.5736665705 5.144202 2.425
19 1 8.5736665705 8.5736665705 2.425
20 1 0.0 3.4294645705 4.85
21 1 0.0 0.0 4.85
22 1 3.4294645705 0.0 4.85
23 1 1.7147374295 1.7147374295 7.275
24 1 0.0 6.8589394295 4.85
25 1 3.4294645705 6.8589394295 4.85
26 1 1.7147374295 5.144202 7.275
27 1 1.7147374295 8.5736665705 7.275
28 1 3.4294645705 3.4294645705 4.85
29 1 6.8589394295 3.4294645705 4.85
30 1 5.144202 1.7147374295 7.275
31 1 5.144202 5.144202 7.275
32 1 6.8589394295 0.0 4.85
33 1 8.5736665705 1.7147374295 7.275
34 1 5.144202 8.5736665705 7.275
35 1 6.8589394295 6.8589394295 4.85
36 1 8.5736665705 5.144202 7.275
37 1 8.5736665705 8.5736665705 7.275
38 2 0.0 0.0 2.425
39 2 1.7147374295 5.144202 0.0
40 2 0.0 3.4294645705 2.425
41 2 0.0 6.8589394295 2.425
42 2 1.7147374295 1.7147374295 0.0
43 2 5.144202 1.7147374295 0.0
44 2 3.4294645705 0.0 2.425
45 2 3.4294645705 3.4294645705 2.425
46 2 6.8589394295 0.0 2.425
47 2 1.7147374295 8.5736665705 0.0
48 2 5.144202 8.5736665705 0.0
49 2 3.4294645705 6.8589394295 2.425
50 2 5.144202 5.144202 0.0
51 2 8.5736665705 5.144202 0.0
52 2 6.8589394295 3.4294645705 2.425
53 2 6.8589394295 6.8589394295 2.425
54 2 8.5736665705 1.7147374295 0.0
55 2 8.5736665705 8.5736665705 0.0
56 2 0.0 0.0 7.275
57 2 1.7147374295 5.144202 4.85
58 2 0.0 3.4294645705 7.275
59 2 0.0 6.8589394295 7.275
60 2 1.7147374295 1.7147374295 4.85
61 2 5.144202 1.7147374295 4.85
62 2 3.4294645705 0.0 7.275
63 2 3.4294645705 3.4294645705 7.275
64 2 6.8589394295 0.0 7.275
65 2 1.7147374295 8.5736665705 4.85
66 2 5.144202 8.5736665705 4.85
67 2 3.4294645705 6.8589394295 7.275
68 2 5.144202 5.144202 4.85
69 2 8.5736665705 5.144202 4.85
70 2 6.8589394295 3.4294645705 7.275
71 2 6.8589394295 6.8589394295 7.275
72 2 8.5736665705 1.7147374295 4.85
73 2 8.5736665705 8.5736665705 4.85
